# vtk DataFile Version 3.0
2D-vertex
ASCII
DATASET UNSTRUCTURED_GRID

POINTS 1998 float
-6.39322 -29.2308 0
-4.98723 -29.493 0
2.11239 -29.082 0
1.78414 -27.9727 0
0.118366 -27.5052 0
-6.6496 -28.7459 0
12.4362 -24.5692 0
13.4588 -23.3611 0
7.98166 -18.6094 0
2.4373 -23.8501 0
2.25385 -13.9637 0
-4.21876 -9.63743 0
-2.352 -18.6004 0
-7.58523 -18.1622 0
-14.7135 -23.6283 0
-10.953 -27.0564 0
21.9696 -19.5346 0
23.6079 -16.1426 0
19.5766 -10.9429 0
10.9356 -16.5155 0
7.3042 -9.21799 0
3.79147 -10.6733 0
1.01232 -6.41223 0
-4.00477 -1.73708 0
-10.3583 -3.12804 0
-13.9306 -6.09928 0
-16.983 -12.9088 0
-17.8095 -13.0848 0
-21.9775 -14.4864 0
-20.1697 -18.4982 0
24.6048 -15.874 0
25.6898 -13.2611 0
28.2771 -5.33721 0
19.2619 -6.77683 0
19.0136 -6.30371 0
10.5148 -8.97238 0
13.6336 -0.755534 0
7.46607 0.171864 0
8.12253 4.67575 0
0.94711 2.4816 0
-6.22171 0.587238 0
-11.4953 1.84633 0
-17.6683 -0.101164 0
-20.403 1.70028 0
-22.3583 -7.45958 0
-26.4312 -5.24998 0
-26.4415 -7.4742 0
-24.0821 -11.9 0
28.1842 3.24312 0
27.0631 4.71886 0
21.3489 2.63225 0
19.574 2.94572 0
17.3233 -0.731823 0
11.6029 8.73448 0
6.65258 5.63853 0
4.41261 12.0137 0
1.12109 13.3775 0
-3.11488 3.54579 0
-9.00945 6.4664 0
-15.7423 10.3458 0
-16.4978 11.2964 0
-22.5671 7.43406 0
-26.4464 4.78989 0
-26.8963 1.85537 0
23.543 13.6738 0
18.4872 18.0592 0
16.0127 14.0495 0
7.48085 32.6501 0
6.72805 31.502 0
2.5094 39.4923 0
1.08926 39.7697 0
1.46568 45.7711 0
-1.88927 38.8243 0
-1.72164 19.9584 0
-4.00283 27.0696 0
-4.32277 25.9388 0
-6.23686 26.086 0
-16.2269 12.4051 0
-14.5007 24.9513 0
-17.2 20.0361 0
13.2034 33.1501 0
8.21676 42.1385 0
6.9089 44.3007 0
6.78253 45.0981 0
5.57314 45.5141 0
3.09873 47.4407 0
2.41314 47.3178 0
1.78326 48.2022 0
0.294497 48.1303 0
-3.01852 46.5022 0
-3.87891 46.4429 0
-5.51309 44.8843 0
-7.45499 43.7521 0
-8.53644 41.4313 0
-9.27837 41.3204 0
-14.5297 28.9918 0
-4.94224 -31.3278 0
13.3147 -26.5938 0
22.8713 -21.0434 0
26.1055 -17.0957 0
27.656 -13.9468 0
30.2209 3.51196 0
25.168 14.5467 0
15.1599 33.4884 0
10.1494 43.1633 0
8.02085 46.1661 0
3.76264 49.3669 0
2.16413 49.8379 0
-0.177108 49.8458 0
-4.84926 48.0463 0
-9.13936 44.5448 0
-10.6621 42.5688 0
-16.1647 29.9391 0
-19.917 21.3029 0
-28.4781 2.10647 0
-27.9343 -8.28594 0
-25.4294 -12.9308 0
-21.7795 -19.3551 0
-11.9174 -28.3683 0
-7.12678 -30.8894 0
30.9655 -3.43724 0
29.2069 -3.18266 0
1.33205 -5.00935 0
-2.43864 0.220239 0
27.9812 2.86084 0
22.1989 1.57889 0
4.03727 46.8117 0
5.52889 48.4051 0
5.07905 21.9627 0
3.37045 22.7257 0
2.92755 31.0441 0
2.1655 29.8206 0
13.3578 -15.2005 0
17.8825 -15.4821 0
14.3471 13.174 0
12.3896 12.9847 0
3.81346 -22.8759 0
10.3298 -25.708 0
10.835 -1.86038 0
1.41886 -8.58211 0
11.9562 34.5522 0
9.28095 31.7747 0
-2.51369 -8.46876 0
0.514591 -7.75998 0
3.51431 -30.8687 0
3.12554 -29.3511 0
27.7815 4.39332 0
29.5872 5.42224 0
18.905 -1.07851 0
16.697 -7.25266 0
-5.60236 1.2746 0
-4.34016 2.67164 0
-6.76521 25.0884 0
-10.659 36.5754 0
-6.58066 44.9802 0
-7.52651 46.283 0
6.38709 -17.4066 0
3.81022 -12.2389 0
-2.93113 -28.7879 0
-4.44458 -25.6322 0
0.267696 34.8612 0
-4.51391 31.634 0
-18.446 -23.5525 0
-17.3311 -22.2937 0
20.1038 -20.0997 0
18.4202 -17.3779 0
-20.4628 -13.7131 0
-23.3107 -7.81662 0
1.41272 46.108 0
-0.127646 47.3323 0
-26.5254 13.0353 0
-25.2127 12.3669 0
-9.32739 -13.9798 0
-8.94884 -10.1864 0
3.47577 -17.8518 0
0.0687255 -16.323 0
24.0384 -9.99974 0
26.0449 -11.386 0
-13.0039 -10.7464 0
-18.4066 0.0929081 0
12.8809 7.00471 0
10.0541 4.80108 0
-16.7698 0.983457 0
-18.802 5.23848 0
-1.69895 49.4504 0
-0.904282 47.3591 0
23.4998 12.6058 0
19.2582 8.11162 0
-9.69532 7.70119 0
-11.2739 12.1918 0
4.06582 46.5831 0
2.79755 45.3858 0
9.17322 40.9639 0
10.8746 41.9003 0
-5.41271 -19.0507 0
-8.39073 -27.9978 0
-18.4149 -14.1437 0
-14.6604 -19.6951 0
-13.5063 -1.90157 0
-11.5521 -3.55341 0
-19.2785 11.783 0
-19.8652 17.1487 0
-4.59302 35.0788 0
-7.83188 37.6541 0
-13.9619 35.7156 0
-12.1848 34.8494 0
5.13239 5.76437 0
1.4146 4.67163 0
-4.29424 9.89162 0
-6.41844 8.70594 0
20.3625 -22.8074 0
19.4306 -21.4285 0
18.3574 24.3407 0
16.0123 23.6322 0
-21.4027 0.180986 0
-26.0143 -0.978892 0
14.81 9.01737 0
14.5826 5.74147 0
9.88305 16.1315 0
5.84735 9.51086 0
6.76214 47.4109 0
5.44944 46.0891 0
-3.61842 -4.55359 0
-6.68422 -9.18751 0
5.47611 38.9383 0
3.90875 37.0993 0
1.60303 -31.2457 0
1.35976 -29.7777 0
9.5631 26.6811 0
6.84885 18.302 0
2.65802 20.2709 0
1.25386 22.3761 0
26.5376 7.04007 0
28.5783 7.80668 0
-7.98237 -28.7269 0
-8.75863 -30.2171 0
4.84403 31.7348 0
4.2861 31.0081 0
0.138503 38.5424 0
-1.17668 39.0802 0
-10.0987 18.5003 0
-13.5219 29.2495 0
-26.9282 -4.25939 0
-28.7115 -4.30294 0
-7.85534 2.1453 0
-7.45027 0.552518 0
6.72927 40.1094 0
8.17938 41.5859 0
9.84322 -7.48076 0
7.84723 -6.15609 0
27.327 -10.7306 0
28.8199 -11.5015 0
3.95319 -3.70675 0
4.38677 -6.61506 0
17.6224 14.3103 0
17.445 11.0934 0
-11.3026 -6.54886 0
-12.7445 -7.70446 0
13.3081 29.1686 0
12.6253 19.7884 0
-7.39694 10.9046 0
-7.53407 13.7996 0
17.0534 -10.9333 0
15.1645 -9.98303 0
-24.4364 16.3867 0
-23.211 15.5115 0
-28.5585 7.25141 0
-27.0368 7.27803 0
-2.84719 -24.7824 0
-4.29858 -22.4207 0
13.5101 5.84263 0
11.8017 0.0212002 0
13.1642 -5.90662 0
13.6944 -5.1525 0
3.27196 -27.0391 0
3.82503 -28.6094 0
21.5343 -15.1257 0
19.9239 -17.3401 0
3.37917 8.50663 0
-3.00379 7.27576 0
-2.25992 17.4241 0
-4.50774 14.2078 0
18.4168 -21.5323 0
15.967 -18.2757 0
-13.4932 -16.0907 0
-14.8705 -18.6206 0
-18.6887 -7.08018 0
-19.5731 -7.59305 0
-19.6963 10.7355 0
-25.8324 9.4987 0
-16.8508 27.8355 0
-14.8542 27.7447 0
3.20331 1.28459 0
3.34076 1.71329 0
7.81051 -12.2114 0
6.85274 -12.9986 0
5.76083 -16.1134 0
4.39537 -16.2618 0
20.7539 -9.89972 0
27.8982 -8.02343 0
-6.23822 8.73111 0
-5.33928 3.79738 0
-0.0949673 31.3986 0
-3.02546 27.3402 0
-15.7642 15.8915 0
-18.5019 15.6506 0
-0.119279 -21.7464 0
-2.20344 -19.9422 0
16.4387 -22.9211 0
16.6658 -24.7732 0
1.69021 -15.2248 0
-3.47197 -13.7329 0
-13.6159 3.27894 0
-17.734 6.02709 0
-1.27447 -2.73892 0
-3.04345 -2.95903 0
17.5862 -3.90108 0
19.8519 -4.80589 0
12.7033 19.1818 0
11.4541 17.2107 0
8.92376 -28.9577 0
8.27469 -27.6105 0
-1.022 47.2037 0
0.56654 45.1334 0
-2.92412 40.0498 0
-5.4232 38.0328 0
-5.93378 -15.5104 0
-4.10789 -15.0454 0
10.7404 38.2396 0
12.4002 39.0774 0
7.57857 16.3531 0
6.27035 15.1675 0
24.631 0.876327 0
24.9603 -2.66686 0
18.033 5.60662 0
15.6597 1.20642 0
30.9087 -1.22798 0
29.03 -1.80302 0
-15.4861 -25.8298 0
-14.4057 -24.1044 0
25.8051 3.97492 0
26.7962 2.66811 0
11.27 -14.1924 0
10.4433 -15.6122 0
-3.47364 0.808071 0
-2.09934 3.88021 0
-8.50711 37.286 0
-9.9463 37.9541 0
-3.2956 48.8424 0
-2.56277 47.3453 0
16.9959 28.5696 0
15.014 28.1064 0
5.19897 -24.7455 0
7.69902 -22.4661 0
-7.58514 32.6148 0
-6.07618 30.5098 0
-17.7616 -21.0831 0
-18.1309 -17.8476 0
-6.51583 38.8468 0
-7.71233 38.4797 0
13.555 10.251 0
12.5347 9.09641 0
-10.1906 19.9648 0
-12.3464 18.277 0
-12.7642 38.2505 0
-10.7309 37.3482 0
2.65804 34.4841 0
1.26422 33.9856 0
-9.93759 5.52935 0
-12.0016 5.72721 0
22.2209 18.9982 0
20.6836 17.8139 0
4.6895 44.6992 0
2.92497 45.0516 0
-1.74448 -29.1286 0
-1.33146 -27.5891 0
-9.46666 25.7051 0
-11.2198 25.5175 0
22.8088 9.54359 0
24.8669 4.5605 0
9.22365 11.271 0
7.78485 10.8488 0
22.7818 14.1769 0
19.0193 10.4582 0
11.2309 -4.979 0
9.47259 -5.99915 0
6.36816 -7.25144 0
6.58775 -9.08832 0
-6.15786 16.9749 0
-8.03074 18.0206 0
-24.2439 4.93584 0
-23.7866 -0.102105 0
5.75984 43.3183 0
4.89973 43.6172 0
8.38529 37.979 0
9.96352 38.7564 0
12.9566 30.9962 0
10.6456 26.4184 0
-12.5133 -9.62043 0
-9.73878 -12.4721 0
15.8216 22.904 0
13.6289 22.4317 0
7.5014 33.7015 0
5.66017 37.5254 0
28.6013 -7.72125 0
30.1649 -8.49524 0
-12.7642 -19.7138 0
-9.48133 -24.1574 0
-3.51264 10.9234 0
-4.25459 13.2439 0
-9.54303 -3.89067 0
-6.80056 -6.63953 0
2.78929 15.805 0
1.37934 13.987 0
-13.8846 -6.86684 0
-18.9411 -4.94997 0
8.58521 28.6672 0
7.50192 27.7123 0
1.36722 43.7462 0
0.546747 44.3113 0
13.2398 -21.0983 0
10.8146 -20.3922 0
-11.2083 -19.0289 0
-10.9408 -17.6541 0
-24.1972 8.9877 0
-23.1329 7.06878 0
7.48723 -17.5238 0
9.50844 -15.5121 0
11.2818 7.1396 0
11.591 6.81013 0
3.88658 28.0543 0
1.85255 26.6615 0
-9.09284 -1.7846 0
-8.85454 -0.852565 0
6.57548 27.977 0
4.70144 26.7094 0
5.49475 -2.8769 0
6.1897 -3.3194 0
-2.0772 11.1421 0
0.583469 8.72346 0
-3.03391 20.3455 0
-4.32065 18.8383 0
-24.0358 -1.12724 0
-25.5663 -5.37459 0
3.74565 -26.5011 0
5.44665 -26.2749 0
10.9895 20.6159 0
9.467 20.8811 0
-1.17753 -6.18849 0
-3.21768 -8.36564 0
24.2727 -6.37053 0
23.6822 -5.47062 0
-23.5629 -8.53628 0
-25.118 -9.00683 0
16.2673 13.8849 0
14.6861 9.73962 0
-2.76529 -20.8246 0
-4.26226 -21.0664 0
0.0824818 -26.5536 0
2.42842 -24.6829 0
-5.88793 -26.0627 0
-8.31644 -25.7793 0
3.35273 -18.4953 0
5.62807 -19.5089 0
1.26761 23.0743 0
-1.12486 24.5046 0
7.96546 43.7969 0
9.229 44.6306 0
-18.412 -21.003 0
-19.6396 -22.3911 0
-26.4258 -11.2882 0
-25.1236 -10.4923 0
0.121732 7.25896 0
1.93947 4.67056 0
11.3123 5.34597 0
12.4228 4.74004 0
-23.247 14.5974 0
-23.1273 11.6615 0
4.09364 3.8352 0
6.65283 2.27033 0
13.1088 -19.6684 0
13.9014 -16.5084 0
16.4804 -1.79771 0
15.3903 -3.79001 0
-15.2486 32.559 0
-13.2248 31.9156 0
12.249 -9.94679 0
14.0305 -11.317 0
-2.08112 -29.2915 0
-2.15222 -31.4273 0
-10.8469 -5.34226 0
-11.7226 -4.39706 0
-1.95541 44.8009 0
-0.879933 43.7779 0
5.24456 19.4186 0
3.37533 16.367 0
23.1217 -3.0158 0
23.9504 -3.28336 0
22.2129 -1.31446 0
20.2259 -0.983285 0
-21.7391 16.5371 0
[...]
CELL_DATA 2997
SCALARS current_Length float
LOOKUP_TABLE default
1.43023
0.92859
1.15682
1.73013
1.41655
0.548516
0.871779
1.11798
1.21126
0.449425
0.832911
1.63864
0.711503
1.40128
1.08479
0.0555775
1.40823
0.566918
1.3329
1.62891
1.5378
1.3765
0.683798
1.60588
1.02871
0.72809
0.80899
0.872521
2.20154
1.00631
1.64644
1.26734
0.620986
1.22334
0.844986
0.617327
1.45938
0.655309
1.03242
0.648428
1.12345
0.380906
1.68897
0.534311
1.59984
0.977591
1.35212
0.237488
1.43858
1.32035
1.26734
0.925972
1.29464
1.22905
1.40845
1.22919
1.83515
1.6281
1.13849
1.06849
1.62566
1.48547
0.702504
0.751855
0.788658
1.46152
0.496442
0.96476
1.32427
1.3589
1.2625
1.62689
1.75718
0.784019
0.257984
1.82503
0.908379
1.50517
0.749875
1.71034
1.21431
1.38313
1.07759
0.673474
1.14535
1.10826
0.784931
0.912395
1.48905
1.15031
1.34696
1.37289
1.19223
1.89835
1.44697
0.377211
0.957691
0.75717
0.00168011
0.661954
1.36818
1.17519
0.588523
1.91974
1.08934
1.14136
1.5431
1.38646
0.423597
0.511841
0.805429
1.17056
1.71514
0.807258
1.27896
1.18375
1.12981
0.696527
0.341081
1.08577
1.4905
0.777099
1.60399
0.862444
0.762477
0.930486
1.5075
1.25166
1.25676
0.750176
0.879371
1.28855
1.83535
2.00245
2.20687
2.38434
1.75772
2.33783
1.93507
2.08235
1.43986
2.05443
1.27947
1.84465
1.8196
1.98552
2.1875
1.95379
1.63529
2.01113
2.03739
1.66645
1.67947
1.77911
1.57237
1.87422
2.37119
1.86157
0.953033
1.86364
1.88962
2.2127
2.99786
1.75959
1.60157
2.35308
1.6993
1.69641
0.807955
1.82363
1.66542
1.62827
1.76492
1.81361
2.22808
1.4191
1.45639
2.34125
2.19017
1.76761
2.20999
1.39094
1.77685
1.4129
1.63539
0.626239
0.432828
1.35351
1.20051
0.58814
1.77028
2.18263
0.49391
1.03914
1.87123
0.845288
1.34819
1.44139
0.806372
1.10759
1.41644
1.88167
1.7648
0.0263856
1.68604
1.04829
1.33447
0.873079
0.00250359
1.14505
0.553861
1.44904
1.05329
1.55963
1.22213
1.53582
1.85881
1.00491
1.56661
1.21866
2.01265
2.07833
0.479973
0.636484
0.856261
2.17843
0.935483
0.00250221
0.675773
0.991369
2.04266
1.07187
1.68709
1.60996
1.10636
0.575795
1.43679
0.373947
0.29688
2.01217
0.723853
0.447058
1.06168
1.94502
0.763616
1.68152
0.434907
1.97057
1.02266
1.21974
1.0171
1.48857
1.56981
0.902803
1.96762
1.80901
0.906011
1.47302
2.25317
1.11145
1.07437
0.71102
1.45836
1.7922
1.00643
1.05568
0.127181
0.981756
0.763321
0.843435
1.32236
0.896665
1.30448
1.96338
1.32762
1.09718
1.70851
0.195002
2.23717
1.06894
1.29449
1.44707
1.41249
1.04325
0.429688
0.230359
1.38647
1.74416
0.777167
1.58831
1.94206
1.46613
1.10853
1.44084
2.09265
0.984275
1.09483
1.68317
1.67909
0.26477
1.37842
0.890452
1.1705
0.638687
0.834266
1.65729
1.73642
1.04026
1.97696
1.1875
1.06918
1.2821
1.29442
1.37898
1.28807
1.56209
1.48958
1.66434
0.931365
0.950113
2.44972
0.890128
1.83233
1.30394
0.732808
1.07726
0.88574
1.70319
0.816263
1.5204
1.5841
1.46917
1.86289
0.535559
1.26382
0.391801
0.812312
0.491961
1.80251
1.9481
1.02492
1.48804
0.932294
1.95558
0.416899
1.75569
0.428493
1.0678
0.895873
1.28838
2.18002
0.835667
1.80639
1.68025
1.2419
1.35903
0.916154
1.55248
1.10231
1.42092
2.12393
1.19987
0.00251005
0.758244
1.48865
1.78385
1.2712
1.39442
0.867414
1.30177
1.17243
0.542906
1.63582
0.856473
0.602926
1.43997
1.51331
1.68016
0.762101
1.44434
1.05147
1.42031
0.695681
1.48717
1.11636
1.41469
0.914685
0.532459
1.58965
0.713486
0.364477
0.550455
1.80167
1.32789
0.762299
0.904061
1.98156
0.914843
1.50582
2.00547
0.633685
1.52185
1.46264
1.3547
1.82209
1.32148
1.59628
1.5485
0.341767
1.3784
0.120632
1.26122
1.01956
1.66477
1.27831
1.50418
0.854886
1.01468
0.742479
1.26245
0.942874
0.784715
1.6201
1.01911
0.439483
0.755699
1.26758
1.24942
1.40576
1.95337
1.28752
1.02238
1.12782
1.28457
1.20784
0.690573
0.244122
1.99872
1.8798
1.26268
0.450197
1.12501
1.7469
1.23975
0.538296
0.898886
1.3735
0.962875
1.12386
0.964787
0.181966
1.05846
0.94673
0.865642
1.01411
1.55824
0.658508
1.17799
1.70799
0.655095
0.91844
1.11802
1.22317
1.84879
1.86592
1.38134
0.369348
1.62414
1.48373
1.03662
1.70224
1.26404
1.13692
1.78263
1.79399
1.71646
0.829569
0.611631
1.51592
1.5272
1.87473
1.15019
1.49538
1.54727
1.5231
1.44158
1.72056
1.36248
1.21376
0.645181
1.20127
0.992753
1.20829
1.46547
1.85928
1.14789
1.69554
0.923993
0.317469
0.791684
1.47376
0.908508
0.529271
1.51518
1.27957
0.536271
1.96469
1.40823
0.869598
2.03574
1.10596
1.2872
0.513215
1.203
1.76381
1.64297
1.01233
1.15373
1.25053
0.769049
1.38265
1.58673
1.74571
0.958361
1.66679
2.09814
1.15744
2.03537
1.54937
1.0716
0.938924
1.85716
0.318964
1.84146
1.28491
1.05669
1.25563
0.895942
1.0011
1.25155
1.18539
0.999606
1.03179
1.09861
2.15283
1.64029
1.34222
0.776122
2.22446
0.687017
1.32658
1.48028
1.3189
1.32565
1.48635
2.07738
1.19098
1.9406
1.20208
0.357702
1.79937
1.15126
0.265372
1.59398
1.08005
0.459382
1.7632
1.45912
1.8013
1.30239
0.796799
1.21718
1.49946
0.43409
1.69755
1.32369
1.10389
1.63292
1.3744
1.18078
0.911758
0.945178
0.917038
0.853987
1.58313
1.52227
0.648374
1.63846
1.51182
1.10223
0.910559
0.6578
0.93302
1.75928
0.802038
1.11397
1.84663
1.22825
1.28713
1.44217
0.752712
1.42159
2.24308
0.400068
1.02252
0.926138
0.765255
1.61695
1.74474
1.20159
1.16513
1.4579
0.589331
0.00261453
0.86714
1.16121
1.28607
1.51687
1.51908
1.20877
1.4951
0.76893
1.21507
1.10107
0.714038
0.963497
1.44408
1.14722
0.822416
0.996208
0.969748
1.26686
0.289217
1.16358
1.78213
1.40063
1.00625
1.48441
1.74607
1.19289
0.940196
1.28428
1.16141
1.49045
0.451868
1.08112
2.18515
1.94268
1.36203
1.23852
0.962015
1.24379
1.57096
2.2625
1.75073
1.78665
0.823875
0.71572
1.53557
1.85098
0.162534
1.90388
1.98239
1.15718
0.873895
0.712092
0.716862
1.30782
1.23915
0.567427
1.64162
1.54544
0.506191
1.61852
1.39457
1.24176
1.18322
1.07633
0.762589
0.461956
1.62474
0.303151
1.24129
1.5198
1.04607
1.38217
1.51638
0.952328
1.16518
1.76126
1.50619
0.746574
1.80333
1.18761
1.7294
1.44511
0.814979
0.898908
2.00644
0.46202
1.73213
1.51384
1.27473
2.14218
1.853
1.92118
1.07566
1.52619
0.629393
0.524873
1.33835
1.3711
0.88673
1.26508
1.194
0.752307
1.68552
1.37144
1.1941
0.860268
1.43595
0.764872
1.05484
1.49935
0.994473
0.353816
1.65888
1.33149
2.12366
0.863703
1.13698
1.44611
0.987976
1.31991
2.137
1.23634
0.860711
1.28851
1.12431
1.49862
1.48428
0.480785
0.811955
1.76856
1.20028
1.09762
0.870748
1.6953
1.33446
1.55586
1.22134
2.00167
1.99932
1.31112
1.27394
1.10035
1.38471
1.13295
1.7533
1.24206
0.454654
1.07993
0.302693
0.757703
1.43034
0.321372
1.1027
1.22837
0.74885
0.605049
2.34921
1.22233
0.742685
2.57986
0.791591
0.762874
1.89178
0.569168
1.03918
1.55774
1.3325
1.21358
1.21516
1.47621
0.919529
0.956909
0.909917
0.933962
1.63853
1.50658
1.41404
1.12674
1.20079
1.87477
0.738247
0.495504
0.432547
1.46728
1.44381
0.80562
0.612422
1.13799
0.73502
1.80828
1.33619
1.42975
1.26837
1.42503
1.01187
1.74964
1.503
1.19142
1.50178
0.963942
1.30008
2.19056
0.984017
0.431729
0.00180811
1.40897
1.4561
0.512206
1.11747
0.798133
1.79046
1.23353
0.84505
1.24423
1.51508
0.848393
1.87087
1.52103
2.04023
0.808727
1.26926
2.1164
1.96892
0.938604
0.393857
1.92584
0.665303
1.2959
1.12543
1.63312
0.504515
2.08201
1.39575
1.08239
1.61575
2.54845
1.88598
1.50227
1.31463
1.18162
0.599346
0.723161
0.824617
0.508673
1.91688
1.37889
1.50553
1.04121
1.52203
1.64087
1.24534
1.3982
0.813926
0.757845
0.607462
0.961719
1.72088
1.10855
1.40539
1.02651
1.23812
0.985686
1.81307
1.05555
1.51886
1.56599
0.479741
2.14853
1.45769
0.624382
1.50202
1.41069
1.40521
1.79649
0.131374
1.54289
1.63111
1.21399
0.55927
1.15507
1.24035
0.913264
1.32794
0.718466
1.91033
1.22062
1.19002
1.16317
1.21645
1.18349
1.26021
1.57398
0.733142
1.08349
0.880548
1.97133
0.984824
1.48601
0.63415
1.95594
0.733989
1.2146
1.59216
1.64418
0.675028
0.720164
1.18546
0.913074
0.94902
1.53152
1.71961
0.885217
0.810452
1.49313
1.63877
1.41856
1.03979
0.875528
1.51042
1.47139
1.63825
0.712255
1.22602
1.88557
0.612503
1.37973
0.924083
1.11843
1.66751
2.08892
0.927067
0.00251349
1.2924
1.11086
1.41933
1.03749
0.863958
1.61142
1.4747
1.14081
0.677826
1.23989
1.51863
1.35637
0.488093
0.221626
1.32836
0.825422
1.53141
1.8069
0.775657
1.07295
0.974886
0.18584
2.03328
1.63205
0.765918
0.721879
0.263867
1.40921
1.42001
0.0936502
1.1233
1.94469
1.18456
0.9122
1.04818
0.652528
1.4699
1.43642
0.93467
1.37639
2.00158
0.738535
0.990653
1.28946
1.49017
1.09505
1.69666
0.959055
1.86325
1.50764
0.970457
1.30084
2.20273
1.32097
1.6578
1.10219
1.18651
0.338667
1.44074
1.46183
0.605118
0.906788
0.78834
0.610497
2.1181
1.79251
1.39508
1.42517
0.821364
1.46088
1.32817
1.82325
0.871441
1.51609
0.964696
1.52432
1.63397
0.883967
0.462707
1.24544
1.63882
1.6734
1.81513
0.829285
1.45966
0.976162
1.55426
1.49586
1.04086
1.22847
1.04547
1.4996
2.20669
1.43486
2.06169
0.747367
1.27641
1.08961
0.482008
0.760571
1.34132
0.95389
1.92638
1.48682
0.868389
0.647786
1.29039
1.13811
1.27923
1.02723
1.29501
0.387691
1.03859
1.21332
1.72315
1.33795
1.09374
1.18552
1.63451
1.20496
1.61675
0.969297
0.628456
0.771398
1.5114
1.35075
0.793922
1.25543
1.0043
1.57145
0.277867
1.15446
0.996673
1.35506
1.15208
0.531348
0.909915
1.40789
1.02938
1.27597
1.21511
1.32096
1.56472
1.4067
1.19082
1.44678
1.25792
0.145296
0.850298
0.775162
1.67732
1.18323
0.617655
1.88334
1.80328
0.368542
1.29053
1.84601
1.87483
0.429885
0.723634
1.04152
0.631237
0.740105
1.13165
1.71057
0.677988
0.608598
0.553192
1.52863
1.21865
1.33012
1.46454
0.764348
0.300789
0.00250193
0.734454
1.15499
2.13439
2.12112
0.427079
1.01202
1.09829
0.832304
1.2232
1.21894
1.20954
0.56956
1.49334
0.855823
1.05505
1.16376
0.882126
1.10007
0.932538
1.86583
1.54136
1.36312
0.580441
2.12976
1.09144
0.69926
1.50846
1.35422
1.08332
2.04503
1.40059
1.09705
1.19917
1.35732
0.245498
1.23159
0.845572
1.35472
1.07291
1.37352
0.492193
1.65684
1.36256
1.50534
1.27085
1.14825
1.79314
0.698454
1.48087
1.11773
1.34253
1.31071
2.09547
1.99183
1.65552
1.21882
1.0239
1.31337
0.866335
0.645963
0.938274
0.990848
2.20942
1.01219
0.929146
1.53164
0.540175
1.10157
1.49353
0.509155
0.921249
1.06808
0.498725
0.858802
2.39112
1.26791
1.05797
0.365951
0.926481
1.43231
1.43184
0.332868
0.552836
0.679442
1.38478
0.792021
1.8798
1.32517
1.57028
1.2398
0.651854
0.652618
0.945425
1.64608
0.298306
0.503387
1.4446
1.2484
1.4958
1.16091
1.34264
0.916035
1.16566
1.14295
1.67642
0.620147
1.24861
2.20163
1.4906
1.5605
0.830214
0.782326
1.27558
1.28902
0.637192
0.00250156
1.31564
1.43589
0.996212
1.41013
0.331676
0.871911
1.81111
1.4979
1.3065
1.76442
0.953176
1.20667
1.02897
0.650699
0.324867
1.12048
0.492586
0.661361
1.54728
1.26004
1.03047
0.960385
1.10828
0.574916
2.32954
1.40678
0.967239
1.18627
1.11086
0.780764
1.90397
1.10662
0.517313
1.70083
1.61859
1.22605
0.805867
1.11686
0.268941
1.78789
1.43356
1.19768
1.46316
1.14237
1.4709
1.81997
1.10168
1.02503
1.84846
1.55373
2.29494
1.7298
0.377709
0.708173
0.767701
0.0268142
0.803712
1.66586
1.20437
1.67721
1.88877
0.353457
0.943748
1.53799
0.713551
0.821521
1.6761
0.323342
1.53394
0.894547
1.14329
1.44464
1.12496
1.32789
0.510569
1.60852
2.3259
0.691935
0.663986
1.07309
0.797453
1.62021
1.73885
1.14945
0.973627
1.66201
1.14262
1.67115
1.52662
0.767676
1.0479
1.67834
0.313528
1.17493
1.27155
1.77022
1.366
1.43519
0.105808
1.19207
0.664931
0.965442
2.53988
0.652311
1.38295
1.44976
1.18303
1.4527
1.11501
0.692672
1.96903
0.825026
1.05305
1.14125
1.3499
0.888375
1.62071
1.85377
0.651383
1.7602
1.09872
1.75643
1.14335
1.35842
1.65279
1.43482
1.15857
1.4909
1.76003
0.75603
0.694132
1.52124
1.31628
1.25336
1.61666
1.45472
1.02101
0.532484
1.2285
1.09792
1.11364
1.77319
1.0728
1.26062
1.1289
1.52969
0.946975
0.645855
1.14761
1.85885
0.950601
1.04551
0.624812
1.7458
1.54188
0.991939
2.06885
1.90989
0.875238
1.63017
0.393334
0.139671
1.17632
1.17388
1.21549
1.63405
1.43531
1.18449
1.52736
1.25541
0.890942
1.59931
0.750863
0.363011
1.71476
0.58681
1.07034
1.61217
1.20967
1.49152
0.750838
0.00250187
1.45003
0.843889
0.159277
1.18451
1.8926
1.64187
0.242668
1.29595
1.49038
1.81468
1.0154
0.337876
1.35247
1.41396
1.42632
0.470597
1.37518
1.47264
1.12196
1.13591
0.910161
1.3554
1.63006
1.36802
1.33047
2.58452
0.657631
1.2967
1.25068
0.857234
0.719903
1.96613
1.31165
1.08486
1.89467
1.40773
0.442959
1.67003
1.53807
0.877459
1.42355
1.77649
0.290048
1.39033
0.991432
1.05628
0.752874
0.729973
0.677588
1.22854
1.25447
1.54761
1.7068
1.45648
0.245662
1.59779
0.764522
0.951918
1.13104
1.05665
0.732811
0.989346
1.52344
1.14796
0.652828
1.60851
1.57607
1.26499
1.63053
1.48205
1.57035
1.42358
0.568027
0.887273
1.09739
1.17447
0.88796
0.842033
0.557909
0.833216
1.19435
1.43287
1.09146
1.21596
1.28703
1.56171
0.416454
1.09791
1.7629
1.10508
1.01875
1.43221
1.04887
0.708618
1.08623
1.46141
0.977439
2.16078
1.39416
1.33677
1.52891
1.47588
1.75264
0.562272
1.09837
1.23018
1.19999
1.42633
1.41619
0.918683
1.30898
0.328628
1.83538
0.431499
1.43871
1.29113
0.268697
1.46209
1.99571
1.52396
1.33017
1.4257
1.0959
1.2322
1.02177
0.773045
1.44221
1.96508
1.28615
1.40828
1.49631
1.61787
1.22005
1.38962
1.46762
0.950717
0.626883
0.926413
0.823971
1.41737
1.44649
1.38373
0.909259
1.52425
0.915354
1.47821
1.01981
0.455375
0.820696
1.04048
1.00113
1.36389
1.04668
0.926998
1.44049
0.85913
1.75735
1.7417
1.15136
1.41695
1.03666
1.2849
0.529684
1.71958
1.31837
0.723262
1.76266
0.671216
1.15281
1.36201
0.63021
0.879786
2.13223
2.03931
1.25436
1.30245
0.532769
0.424393
3.05971
1.84074
0.327001
0.897672
0.540935
1.16498
2.12963
0.773312
0.989724
1.52807
0.567028
1.45165
1.92201
0.562779
1.21637
1.35176
0.559784
0.63969
1.29111
0.739493
1.10837
0.981417
1.0662
1.06062
1.21189
0.500653
1.4081
1.81857
0.559973
1.76686
1.2984
1.51429
1.5082
1.36809
0.312125
1.29807
1.83802
1.40217
0.904727
2.27902
1.66972
0.887809
2.14751
0.883104
1.11693
2.10328
0.649377
1.17649
0.985048
1.22435
1.55453
0.495388
1.66986
1.60359
0.525367
1.08448
1.24482
1.31941
0.631166
0.965373
0.894883
1.11632
0.690692
2.23006
1.85639
0.0234327
1.4604
0.986607
1.26027
2.22104
1.36337
0.640224
1.62493
0.660221
1.38497
0.757103
0.402799
1.23257
1.09892
1.47668
1.6548
1.23603
0.648417
0.825049
0.792054
1.00413
0.151135
1.53735
1.19587
1.47996
0.468578
0.508817
0.393952
1.49857
0.92727
0.0593189
1.48687
1.08825
0.845245
1.38002
0.289642
1.65229
1.18791
0.81162
1.12598
0.925591
0.880463
0.565278
1.45856
0.00249635
2.07895
1.26655
1.1251
1.02648
1.06054
1.65368
1.31853
0.793112
0.808005
1.18929
1.00982
0.950532
0.910167
1.52547
1.72476
1.20523
1.1588
1.11966
0.919602
1.53291
0.743244
1.19513
2.37097
0.388624
1.62165
1.56698
0.194189
0.949356
1.06927
1.34989
1.30079
1.50823
0.739499
0.999591
1.60944
1.1204
1.53751
1.60834
0.541716
1.16525
1.71056
0.714401
0.267002
1.5452
0.761664
0.945795
2.37408
0.00249968
1.57766
1.952
2.20267
1.00408
1.8892
1.4963
1.02037
1.22809
1.07781
0.719972
1.24566
0.715797
0.631726
1.28501
1.17115
1.16005
1.06926
1.11655
0.857179
2.03825
1.76399
1.27981
1.24553
0.529766
1.30964
2.18376
1.47266
1.00519
1.4927
1.92428
0.929606
2.38395
1.66481
0.00250469
1.10602
1.00129
0.607679
1.5279
1.05419
0.545238
0.535724
1.52504
0.752911
2.01716
0.90743
0.791344
1.18092
1.47599
0.703028
1.67235
0.801456
1.1116
1.60928
0.942502
0.847602
1.20196
1.53394
0.917894
1.33933
0.52912
0.592836
1.12615
1.31402
1.0759
1.66106
1.25351
1.36585
0.961202
1.09428
0.234057
0.790129
0.69441
0.366724
1.53438
1.40628
1.43351
1.27423
1.86881
0.0991729
1.51052
1.07123
0.952377
1.2983
1.22064
0.175876
1.49695
1.17458
1.34922
1.63455
1.36903
1.84548
0.857699
0.767056
1.52049
2.03536
1.39117
0.924875
0.625164
2.04192
1.24281
1.98517
0.556702
0.735594
1.90914
1.30416
0.529281
1.97356
1.50212
1.18886
1.60944
0.908201
1.29043
1.3421
1.22886
1.11066
1.20076
1.5936
0.880415
1.13145
0.542045
0.856406
1.76285
1.27719
0.896478
1.22676
0.956786
0.811598
1.59676
0.859842
0.715478
1.56606
1.12415
1.41418
1.56064
1.68639
0.957715
0.98925
1.20326
0.900031
1.56891
1.91636
1.14227
2.33889
0.661706
1.08565
1.08668
1.81
1.14098
1.72671
2.42376
1.5595
1.77617
1.6292
1.73417
0.726714
1.69263
0.910443
1.27916
1.03455
0.919193
1.33457
1.07763
1.31381
0.497872
1.11659
1.20952
2.11715
1.28083
1.40161
0.891984
0.767255
0.498043
1.05014
0.991863
1.52983
0.409015
0.663796
0.653698
2.26273
1.12224
1.0368
1.59427
1.67514
1.4032
1.98307
2.08933
1.91887
0.00907714
0.71345
0.605558
1.84998
1.49846
1.76131
1.51891
0.671438
1.38498
0.975142
0.108749
0.668825
1.70419
1.2537
2.00666
1.98144
1.13652
0.577363
1.49179
1.70206
1.08059
1.66511
1.34009
0.996326
1.64651
1.18792
1.61031
0.629478
0.607274
1.57871
1.89646
0.823997
1.47191
2.20583
0.738427
1.36408
1.156
0.826001
1.32529
1.44175
1.29548
0.826889
2.21615
1.55903
1.29089
0.770659
1.07635
1.10576
1.47979
0.772266
1.07346
0.225931
0.94062
0.345112
1.96374
1.34781
1.68535
1.11978
0.857186
0.736818
1.60864
1.31485
0.140285
1.39397
0.976899
0.944628
0.713669
0.866934
0.73805
1.32759
1.36324
1.43947
1.0253
1.56209
1.03795
1.65841
0.866368
1.13921
1.60952
1.18342
1.23929
1.18588
0.817193
1.06454
1.70507
1.81429
0.810682
0.71741
1.21444
1.66349
1.50334
0.427245
1.35218
1.98017
1.03321
0.863756
1.89159
1.06146
1.67765
1.14204
0.776586
0.937464
1.66011
0.00250029
0.899344
0.433019
1.54626
1.13972
1.13813
1.44695
1.31603
1.48023
1.41261
1.4731
1.30314
1.24098
1.96794
0.958084
0.632068
1.37903
1.33411
0.241277
1.33935
1.6757
1.36527
1.11638
0.834163
0.50799
1.33092
1.37264
1.04736
0.350917
1.45494
0.869857
0.39719
2.03104
1.03965
1.47154
1.34442
1.41753
1.01642
0.798329
0.507105
0.766833
1.65723
2.05846
1.45063
0.262574
1.09374
0.314102
1.83103
1.23246
0.691745
2.59701
0.86236
0.57867
2.31608
1.39292
0.85267
1.10353
1.78877
0.408386
0.931564
0.899063
1.28422
1.59259
0.904762
0.883816
1.49821
1.30172
1.37549
1.00721
1.36009
0.553886
2.2093
1.68606
0.589128
0.95401
1.33463
0.739533
1.31097
1.50068
0.842799
1.10953
0.444328
0.127261
1.22915
0.808637
1.17964
1.50054
1.28952
1.37193
1.34041
1.02225
1.15904
1.13946
1.83159
1.11227
1.37641
1.09569
0.779938
1.18938
0.981859
1.25861
1.72289
1.2748
0.462528
1.67833
1.4047
1.0953
1.37374
1.59678
1.4052