# vtk DataFile Version 2.0
2D-vertex
ASCII
DATASET UNSTRUCTURED_GRID
POINTS 1998 float
-6.39322 -29.2308 0
-4.98723 -29.493 0
2.11239 -29.082 0
1.78414 -27.9727 0
0.118366 -27.5052 0
-6.6496 -28.7459 0
12.4362 -24.5692 0
13.4588 -23.3611 0
7.98166 -18.6094 0
2.4373 -23.8501 0
2.25385 -13.9637 0
-4.21876 -9.63743 0
-2.352 -18.6004 0
-7.58523 -18.1622 0
-14.7135 -23.6283 0
-10.953 -27.0564 0
21.9696 -19.5346 0
23.6079 -16.1426 0
19.5766 -10.9429 0
10.9356 -16.5155 0
7.3042 -9.21799 0
3.79147 -10.6733 0
1.01232 -6.41223 0
-4.00477 -1.73708 0
-10.3583 -3.12804 0
-13.9306 -6.09928 0
-16.983 -12.9088 0
-17.8095 -13.0848 0
-21.9775 -14.4864 0
-20.1697 -18.4982 0
24.6048 -15.874 0
25.6898 -13.2611 0
28.2771 -5.33721 0
19.2619 -6.77683 0
19.0136 -6.30371 0
10.5148 -8.97238 0
13.6336 -0.755534 0
7.46607 0.171864 0
8.12253 4.67575 0
0.94711 2.4816 0
-6.22171 0.587238 0
-11.4953 1.84633 0
-17.6683 -0.101164 0
-20.403 1.70028 0
-22.3583 -7.45958 0
-26.4312 -5.24998 0
-26.4415 -7.4742 0
-24.0821 -11.9 0
28.1842 3.24312 0
27.0631 4.71886 0
21.3489 2.63225 0
19.574 2.94572 0
17.3233 -0.731823 0
11.6029 8.73448 0
6.65258 5.63853 0
4.41261 12.0137 0
1.12109 13.3775 0
-3.11488 3.54579 0
-9.00945 6.4664 0
-15.7423 10.3458 0
-16.4978 11.2964 0
-22.5671 7.43406 0
-26.4464 4.78989 0
-26.8963 1.85537 0
23.543 13.6738 0
18.4872 18.0592 0
16.0127 14.0495 0
7.48085 32.6501 0
6.72805 31.502 0
2.5094 39.4923 0
1.08926 39.7697 0
1.46568 45.7711 0
-1.88927 38.8243 0
-1.72164 19.9584 0
-4.00283 27.0696 0
-4.32277 25.9388 0
-6.23686 26.086 0
-16.2269 12.4051 0
-14.5007 24.9513 0
-17.2 20.0361 0
13.2034 33.1501 0
8.21676 42.1385 0
6.9089 44.3007 0
6.78253 45.0981 0
5.57314 45.5141 0
3.09873 47.4407 0
2.41314 47.3178 0
1.78326 48.2022 0
0.294497 48.1303 0
-3.01852 46.5022 0
-3.87891 46.4429 0
-5.51309 44.8843 0
-7.45499 43.7521 0
-8.53644 41.4313 0
-9.27837 41.3204 0
-14.5297 28.9918 0
-4.94224 -31.3278 0
13.3147 -26.5938 0
22.8713 -21.0434 0
26.1055 -17.0957 0
27.656 -13.9468 0
30.2209 3.51196 0
25.168 14.5467 0
15.1599 33.4884 0
10.1494 43.1633 0
8.02085 46.1661 0
3.76264 49.3669 0
2.16413 49.8379 0
-0.177108 49.8458 0
-4.84926 48.0463 0
-9.13936 44.5448 0
-10.6621 42.5688 0
-16.1647 29.9391 0
-19.917 21.3029 0
-28.4781 2.10647 0
-27.9343 -8.28594 0
-25.4294 -12.9308 0
-21.7795 -19.3551 0
-11.9174 -28.3683 0
-7.12678 -30.8894 0
30.9655 -3.43724 0
29.2069 -3.18266 0
1.33205 -5.00935 0
-2.43864 0.220239 0
27.9812 2.86084 0
22.1989 1.57889 0
4.03727 46.8117 0
5.52889 48.4051 0
5.07905 21.9627 0
3.37045 22.7257 0
2.92755 31.0441 0
2.1655 29.8206 0
13.3578 -15.2005 0
17.8825 -15.4821 0
14.3471 13.174 0
12.3896 12.9847 0
3.81346 -22.8759 0
10.3298 -25.708 0
10.835 -1.86038 0
1.41886 -8.58211 0
11.9562 34.5522 0
9.28095 31.7747 0
-2.51369 -8.46876 0
0.514591 -7.75998 0
3.51431 -30.8687 0
3.12554 -29.3511 0
27.7815 4.39332 0
29.5872 5.42224 0
18.905 -1.07851 0
16.697 -7.25266 0
-5.60236 1.2746 0
-4.34016 2.67164 0
-6.76521 25.0884 0
-10.659 36.5754 0
-6.58066 44.9802 0
-7.52651 46.283 0
6.38709 -17.4066 0
3.81022 -12.2389 0
-2.93113 -28.7879 0
-4.44458 -25.6322 0
0.267696 34.8612 0
-4.51391 31.634 0
-18.446 -23.5525 0
-17.3311 -22.2937 0
20.1038 -20.0997 0
18.4202 -17.3779 0
-20.4628 -13.7131 0
-23.3107 -7.81662 0
1.41272 46.108 0
-0.127646 47.3323 0
-26.5254 13.0353 0
-25.2127 12.3669 0
-9.32739 -13.9798 0
-8.94884 -10.1864 0
3.47577 -17.8518 0
0.0687255 -16.323 0
24.0384 -9.99974 0
26.0449 -11.386 0
-13.0039 -10.7464 0
-18.4066 0.0929081 0
12.8809 7.00471 0
10.0541 4.80108 0
-16.7698 0.983457 0
-18.802 5.23848 0
-1.69895 49.4504 0
-0.904282 47.3591 0
23.4998 12.6058 0
19.2582 8.11162 0
-9.69532 7.70119 0
-11.2739 12.1918 0
4.06582 46.5831 0
2.79755 45.3858 0
9.17322 40.9639 0
10.8746 41.9003 0
-5.41271 -19.0507 0
-8.39073 -27.9978 0
-18.4149 -14.1437 0
-14.6604 -19.6951 0
-13.5063 -1.90157 0
-11.5521 -3.55341 0
-19.2785 11.783 0
-19.8652 17.1487 0
-4.59302 35.0788 0
-7.83188 37.6541 0
-13.9619 35.7156 0
-12.1848 34.8494 0
5.13239 5.76437 0
1.4146 4.67163 0
-4.29424 9.89162 0
-6.41844 8.70594 0
20.3625 -22.8074 0
19.4306 -21.4285 0
18.3574 24.3407 0
16.0123 23.6322 0
-21.4027 0.180986 0
-26.0143 -0.978892 0
14.81 9.01737 0
14.5826 5.74147 0
9.88305 16.1315 0
5.84735 9.51086 0
6.76214 47.4109 0
5.44944 46.0891 0
-3.61842 -4.55359 0
-6.68422 -9.18751 0
5.47611 38.9383 0
3.90875 37.0993 0
1.60303 -31.2457 0
1.35976 -29.7777 0
9.5631 26.6811 0
6.84885 18.302 0
2.65802 20.2709 0
1.25386 22.3761 0
26.5376 7.04007 0
28.5783 7.80668 0
-7.98237 -28.7269 0
-8.75863 -30.2171 0
4.84403 31.7348 0
4.2861 31.0081 0
0.138503 38.5424 0
-1.17668 39.0802 0
-10.0987 18.5003 0
-13.5219 29.2495 0
-26.9282 -4.25939 0
-28.7115 -4.30294 0
-7.85534 2.1453 0
-7.45027 0.552518 0
6.72927 40.1094 0
8.17938 41.5859 0
9.84322 -7.48076 0
7.84723 -6.15609 0
27.327 -10.7306 0
28.8199 -11.5015 0
3.95319 -3.70675 0
4.38677 -6.61506 0
17.6224 14.3103 0
17.445 11.0934 0
-11.3026 -6.54886 0
-12.7445 -7.70446 0
13.3081 29.1686 0
12.6253 19.7884 0
-7.39694 10.9046 0
-7.53407 13.7996 0
17.0534 -10.9333 0
15.1645 -9.98303 0
-24.4364 16.3867 0
-23.211 15.5115 0
-28.5585 7.25141 0
-27.0368 7.27803 0
-2.84719 -24.7824 0
-4.29858 -22.4207 0
13.5101 5.84263 0
11.8017 0.0212002 0
13.1642 -5.90662 0
13.6944 -5.1525 0
3.27196 -27.0391 0
3.82503 -28.6094 0
21.5343 -15.1257 0
19.9239 -17.3401 0
3.37917 8.50663 0
-3.00379 7.27576 0
-2.25992 17.4241 0
-4.50774 14.2078 0
18.4168 -21.5323 0
15.967 -18.2757 0
-13.4932 -16.0907 0
-14.8705 -18.6206 0
-18.6887 -7.08018 0
-19.5731 -7.59305 0
-19.6963 10.7355 0
-25.8324 9.4987 0
-16.8508 27.8355 0
-14.8542 27.7447 0
3.20331 1.28459 0
3.34076 1.71329 0
7.81051 -12.2114 0
6.85274 -12.9986 0
5.76083 -16.1134 0
4.39537 -16.2618 0
20.7539 -9.89972 0
27.8982 -8.02343 0
-6.23822 8.73111 0
-5.33928 3.79738 0
-0.0949673 31.3986 0
-3.02546 27.3402 0
-15.7642 15.8915 0
-18.5019 15.6506 0
-0.119279 -21.7464 0
-2.20344 -19.9422 0
16.4387 -22.9211 0
16.6658 -24.7732 0
1.69021 -15.2248 0
-3.47197 -13.7329 0
-13.6159 3.27894 0
-17.734 6.02709 0
-1.27447 -2.73892 0
-3.04345 -2.95903 0
17.5862 -3.90108 0
19.8519 -4.80589 0
12.7033 19.1818 0
11.4541 17.2107 0
8.92376 -28.9577 0
8.27469 -27.6105 0
-1.022 47.2037 0
0.56654 45.1334 0
-2.92412 40.0498 0
-5.4232 38.0328 0
-5.93378 -15.5104 0
-4.10789 -15.0454 0
10.7404 38.2396 0
12.4002 39.0774 0
7.57857 16.3531 0
6.27035 15.1675 0
24.631 0.876327 0
24.9603 -2.66686 0
18.033 5.60662 0
15.6597 1.20642 0
30.9087 -1.22798 0
29.03 -1.80302 0
-15.4861 -25.8298 0
-14.4057 -24.1044 0
25.8051 3.97492 0
26.7962 2.66811 0
11.27 -14.1924 0
10.4433 -15.6122 0
-3.47364 0.808071 0
-2.09934 3.88021 0
-8.50711 37.286 0
-9.9463 37.9541 0
-3.2956 48.8424 0
-2.56277 47.3453 0
16.9959 28.5696 0
15.014 28.1064 0
5.19897 -24.7455 0
7.69902 -22.4661 0
-7.58514 32.6148 0
-6.07618 30.5098 0
-17.7616 -21.0831 0
-18.1309 -17.8476 0
-6.51583 38.8468 0
-7.71233 38.4797 0
13.555 10.251 0
12.5347 9.09641 0
-10.1906 19.9648 0
-12.3464 18.277 0
-12.7642 38.2505 0
-10.7309 37.3482 0
2.65804 34.4841 0
1.26422 33.9856 0
-9.93759 5.52935 0
-12.0016 5.72721 0
22.2209 18.9982 0
20.6836 17.8139 0
4.6895 44.6992 0
2.92497 45.0516 0
-1.74448 -29.1286 0
-1.33146 -27.5891 0
-9.46666 25.7051 0
-11.2198 25.5175 0
22.8088 9.54359 0
24.8669 4.5605 0
9.22365 11.271 0
7.78485 10.8488 0
22.7818 14.1769 0
19.0193 10.4582 0
11.2309 -4.979 0
9.47259 -5.99915 0
6.36816 -7.25144 0
6.58775 -9.08832 0
-6.15786 16.9749 0
-8.03074 18.0206 0
-24.2439 4.93584 0
-23.7866 -0.102105 0
5.75984 43.3183 0
4.89973 43.6172 0
8.38529 37.979 0
9.96352 38.7564 0
12.9566 30.9962 0
10.6456 26.4184 0
-12.5133 -9.62043 0
-9.73878 -12.4721 0
15.8216 22.904 0
13.6289 22.4317 0
7.5014 33.7015 0
5.66017 37.5254 0
28.6013 -7.72125 0
30.1649 -8.49524 0
-12.7642 -19.7138 0
-9.48133 -24.1574 0
-3.51264 10.9234 0
-4.25459 13.2439 0
-9.54303 -3.89067 0
-6.80056 -6.63953 0
2.78929 15.805 0
1.37934 13.987 0
-13.8846 -6.86684 0
-18.9411 -4.94997 0
8.58521 28.6672 0
7.50192 27.7123 0
1.36722 43.7462 0
0.546747 44.3113 0
13.2398 -21.0983 0
10.8146 -20.3922 0
-11.2083 -19.0289 0
-10.9408 -17.6541 0
-24.1972 8.9877 0
-23.1329 7.06878 0
7.48723 -17.5238 0
9.50844 -15.5121 0
11.2818 7.1396 0
11.591 6.81013 0
3.88658 28.0543 0
1.85255 26.6615 0
-9.09284 -1.7846 0
-8.85454 -0.852565 0
6.57548 27.977 0
4.70144 26.7094 0
5.49475 -2.8769 0
6.1897 -3.3194 0
-2.0772 11.1421 0
0.583469 8.72346 0
-3.03391 20.3455 0
-4.32065 18.8383 0
-24.0358 -1.12724 0
-25.5663 -5.37459 0
3.74565 -26.5011 0
5.44665 -26.2749 0
10.9895 20.6159 0
9.467 20.8811 0
-1.17753 -6.18849 0
-3.21768 -8.36564 0
24.2727 -6.37053 0
23.6822 -5.47062 0
-23.5629 -8.53628 0
-25.118 -9.00683 0
16.2673 13.8849 0
14.6861 9.73962 0
-2.76529 -20.8246 0
-4.26226 -21.0664 0
0.0824818 -26.5536 0
2.42842 -24.6829 0
-5.88793 -26.0627 0
-8.31644 -25.7793 0
3.35273 -18.4953 0
5.62807 -19.5089 0
1.26761 23.0743 0
-1.12486 24.5046 0
7.96546 43.7969 0
9.229 44.6306 0
-18.412 -21.003 0
-19.6396 -22.3911 0
-26.4258 -11.2882 0
-25.1236 -10.4923 0
0.121732 7.25896 0
1.93947 4.67056 0
11.3123 5.34597 0
12.4228 4.74004 0
-23.247 14.5974 0
-23.1273 11.6615 0
4.09364 3.8352 0
6.65283 2.27033 0
13.1088 -19.6684 0
13.9014 -16.5084 0
16.4804 -1.79771 0
15.3903 -3.79001 0
-15.2486 32.559 0
-13.2248 31.9156 0
12.249 -9.94679 0
14.0305 -11.317 0
-2.08112 -29.2915 0
-2.15222 -31.4273 0
-10.8469 -5.34226 0
-11.7226 -4.39706 0
-1.95541 44.8009 0
-0.879933 43.7779 0
5.24456 19.4186 0
3.37533 16.367 0
23.1217 -3.0158 0
23.9504 -3.28336 0
22.2129 -1.31446 0
20.2259 -0.983285 0
-21.7391 16.5371 0
[...]
CELL_DATA 1000
SCALARS cell_division_count float
LOOKUP_TABLE default
2
4
5
4
6
5
4
5
5
5
5
4
3
4
5
4
5
5
5
4
3
3
5
4
5
5
5
4
3
5
6
4
4
2
4
4
6
4
3
1
5
4
3
1
1
0
1
1
1
1
3
2
2
2
1
0
1
1
0
3
2
2
5
2
2
5
4
5
5
4
5
4
3
3
1
4
3
6
2
5
3
5
3
4
4
1
4
5
4
3
4
2
5
2
5
4
1
3
5
5
4
4
4
3
5
5
2
4
5
4
6
2
6
4
2
6
5
3
2
4
4
6
3
5
4
5
3
4
5
4
6
6
3
3
3
5
3
5
2
5
6
6
3
4
4
6
3
4
4
4
4
4
4
6
4
3
5
5
4
4
6
4
4
5
5
4
6
6
6
3
3
4
4
4
3
2
4
4
5
4
4
5
6
3
5
4
3
2
3
6
5
6
6
6
5
6
4
2
4
5
6
5
4
4
5
5
5
6
4
5
3
5
6
5
4
3
5
4
5
4
5
6
4
5
6
5
5
3
4
4
4
5
6
6
1
3
1
5
5
4
4
5
5
3
6
4
3
4
6
4
4
5
5
3
5
5
5
5
4
5
4
4
5
5
4
5
4
5
4
4
4
6
6
4
6
7
3
6
5
3
6
5
2
5
3
3
4
4
4
6
5
5
4
3
6
6
3
4
6
4
6
4
4
5
3
4
6
6
5
5
4
6
4
4
4
6
4
6
6
4
4
6
4
5
4
3
6
5
4
4
4
2
4
3
5
6
5
4
3
4
4
4
4
4
5
4
6
4
4
5
6
5
4
6
4
3
5
5
4
5
4
4
5
6
5
4
4
3
6
5
5
4
5
5
4
3
6
6
5
5
5
4
5
4
4
4
4
5
4
5
4
4
1
4
5
6
4
5
5
5
5
5
6
4
5
5
4
6
5
4
5
3
5
5
5
5
6
6
5
5
5
4
3
5
4
5
3
4
5
5
4
5
6
4
6
5
5
5
6
5
4
6
5
4
6
6
5
6
5
4
5
5
3
3
5
5
4
5
5
6
6
5
5
5
6
1
4
3
5
4
4
5
5
4
6
5
5
5
5
4
5
5
5
6
6
5
5
5
4
5
5
4
5
6
6
5
5
3
4
5
4
5
6
5
4
4
3
6
6
5
6
5
4
6
5
4
5
4
5
6
3
6
5
6
5
4
6
6
4
4
5
5
4
3
5
4
5
3
5
3
6
4
5
5
6
6
4
4
6
5
5
6
6
4
6
5
5
5
5
3
6
3
4
5
5
5
6
6
4
4
6
6
6
5
4
5
4
3
4
5
5
5
6
4
6
5
6
4
6
5
3
6
5
5
5
4
5
6
5
4
4
7
6
5
4
6
4
7
5
4
4
4
6
5
5
4
6
2
4
4
4
6
6
6
5
5
6
4
4
5
4
4
3
2
5
4
4
5
4
4
5
6
4
5
5
5
4
5
5
6
4
5
4
3
4
4
5
5
3
4
6
5
2
5
4
5
6
5
5
5
4
6
4
6
5
4
5
5
5
4
4
4
5
5
5
5
6
5
5
4
4
5
5
5
4
5
6
6
5
5
4
6
5
6
5
5
5
4
4
3
5
4
4
4
5
6
4
4
3
4
5
4
4
4
5
5
5
6
4
5
5
4
6
4
5
5
5
5
5
6
5
6
6
5
5
4
2
5
6
4
6
4
6
6
3
5
4
6
5
5
5
5
3
4
4
6
3
5
5
5
6
6
6
4
4
5
5
5
4
6
4
5
6
5
6
6
6
5
6
6
4
5
6
5
5
5
5
5
4
5
6
6
6
5
5
5
5
3
2
6
4
5
6
6
4
6
4
5
3
4
6
5
3
6
5
5
3
5
4
5
5
5
6
5
5
5
5
6
5
2
5
5
6
6
5
5
6
4
4
4
5
5
5
4
4
4
6
5
6
6
5
6
5
6
5
6
5
5
6
6
4
5
6
5
6
5
4
4
4
5
5
5
6
5
6
5
6
6
6
5
4
5
5
5
6
6
4
6
5
4
5
5
6
6
5
5
5
3
6
6
4
6
4
5
7
5
4
4
2
5
6
6
5
6
5
5
5
7
4
4
6
4
5
4
5
6
5
5
6
6
6
6
6
6
7
5
5
4
4
5
6
5
6
4
6
6
6
6
5
5
6
6
5
6
6
5
5
6
6
3
5
6
6
5
5
6
5
6
5
6
6
5
6
6
6
4
4
6
6
5
5
6
5
5
6
6
6
6
6
5
SCALARS cell_time float
LOOKUP_TABLE default
201
211
81
121
51
1
281
31
51
201
91
171
431
201
111
131
141
121
51
91
101
171
11
281
281
331
191
231
241
261
91
31
111
751
331
191
181
161
491
451
11
31
451
591
1111
1314.36
1011
1061
311
791
561
111
171
591
901
10919
371
1001
2734.86
361
31
741
151
731
921
41
301
21
81
131
221
291
241
311
1071
251
131
11
181
21
221
131
441
101
21
1031
171
81
151
81
321
631
71
731
161
91
1001
321
31
61
101
161
41
71
111
91
81
171
11
471
151
921
51
211
911
51
221
451
61
311
421
91
161
41
281
141
211
131
91
51
91
11
381
481
441
191
591
171
801
61
111
101
461
261
211
71
251
181
191
111
171
261
251
31
151
351
61
11
161
141
191
161
271
51
41
231
151
11
91
501
381
21
221
141
351
731
251
211
21
131
131
121
91
281
241
391
531
691
101
61
141
11
61
81
131
131
81
661
491
251
31
241
181
341
31
161
141
21
261
141
641
161
51
41
211
381
71
141
91
311
151
31
131
71
111
181
11
71
271
401
111
171
11
11
591
161
591
141
181
391
151
31
21
351
21
161
571
301
161
301
291
31
101
561
101
181
191
171
241
151
191
171
171
151
191
31
201
151
21
271
151
111
41
131
111
31
111
91
61
521
41
81
291
61
511
131
31
131
151
141
101
161
251
491
11
81
491
491
141
271
61
291
481
221
481
191
81
91
111
281
81
101
61
471
121
101
221
101
21
261
181
21
241
71
231
461
81
201
451
11
181
161
71
451
51
121
71
41
441
441
261
31
431
91
161
431
31
11
151
181
51
241
111
11
121
421
141
131
421
51
201
161
211
21
151
81
201
411
191
81
121
61
171
91
131
81
11
41
151
41
221
31
31
131
51
51
101
11
131
11
381
41
371
51
51
11
61
41
171
141
151
211
201
31
201
131
361
91
121
101
11
361
191
71
191
31
31
171
121
71
151
141
351
161
351
61
351
351
91
61
341
121
161
341
141
41
121
131
111
161
331
41
111
331
151
41
161
21
91
321
91
131
321
321
61
321
61
141
111
141
131
141
91
91
121
311
61
311
101
61
311
141
111
91
61
41
51
31
121
301
91
111
141
121
71
41
301
51
291
61
101
81
41
91
121
71
31
41
291
71
281
71
61
121
281
281
281
91
51
281
31
271
271
41
51
271
21
271
271
61
261
41
61
61
71
261
71
91
261
261
261
91
251
251
21
251
251
251
61
241
81
41
241
241
21
41
241
241
51
241
11
31
21
231
61
231
21
231
51
231
31
221
221
221
221
61
21
21
221
221
51
31
11
221
211
21
211
211
211
211
211
21
21
211
211
211
31
41
21
211
21
51
21
201
201
201
201
51
41
201
201
41
31
191
191
11
191
31
191
191
191
191
191
191
191
181
181
181
181
181
181
11
21
11
181
181
21
181
181
181
181
171
171
171
171
171
171
171
171
171
171
11
171
171
171
171
171
171
171
171
161
161
161
161
161
161
161
161
161
161
161
161
161
161
161
161
161
161
161
151
151
151
151
151
151
151
151
151
151
151
151
151
151
151
151
151
151
141
141
141
141
141
141
141
141
141
141
141
141
141
141
141
141
141
141
141
141
131
131
131
131
131
131
131
131
131
131
131
131
131
131
131
131
131
131
131
131
131
121
121
121
121
121
121
121
121
121
121
121
121
121
121
121
121
111
111
111
111
111
111
111
111
111
111
111
111
111
111
111
111
111
111
101
101
101
101
101
101
101
101
101
101
101
101
101
101
101
91
91
91
91
91
91
91
91
91
91
91
91
91
91
91
91
91
91
91
91
91
91
91
91
91
91
91
81
81
81
81
81
81
81
81
81
81
81
81
81
81
81
81
81
71
71
71
71
71
71
71
71
71
71
71
71
71
71
71
71
71
61
61
61
61
61
61
61
61
61
61
61
61
61
61
61
61
61
61
61
61
61
61
61
61
61
61
61
51
51
51
51
51
51
51
51
51
51
51
51
51
51
51
51
51
51
51
51
51
51
51
51
41
41
41
41
41
41
41
41
41
41
41
41
41
41
41
41
41
41
41
41
41
41
41
41
41
41
31
31
31
31
31
31
31
31
31
31
31
31
31
31
31
31
31
31
31
31
31
31
31
31
31
31
31
31
31
31
21
21
21
21
21
21
21
21
21
21
21
21
21
21
21
21
21
21
21
21
21
21
21
21
21
21
21
21
11
11
11
11
11
11
11
11
11
11
11
11
11
11
11
11
11
11
11
11
11
11
11
11
11
11
1
SCALARS cell_area float
LOOKUP_TABLE default
3.30799
3.35238
3.32849
3.3056
3.39587
3.37745
3.33465
3.32788
3.31779
3.33286
3.32626
3.37343
3.30672
3.33931
3.36968
3.40585
3.38792
3.326
3.39131
3.34084
3.40462
3.34402
3.33335
3.36417
3.34315
3.29546
3.36888
3.31913
3.33723
3.34582
3.44072
3.30231
3.29327
3.32228
3.40544
3.30487
3.37853
3.31731
3.29788
3.25557
3.31751
3.32131
3.31014
3.30043
3.23716
3.25861
3.27404
3.25343
3.33576
3.30438
3.31928
3.26248
3.37421
3.31752
3.30025
3.25641
3.32407
3.32529
3.21021
3.2649
3.32769
3.28208
3.31929
3.35422
3.2964
3.31762
3.34826
3.32325
3.33452
3.3354
3.35582
3.33112
3.34296
3.33175
3.27624
3.35363
3.33415
3.31884
3.2977
3.33987
3.34244
3.33265
3.31896
3.3703
3.29793
3.24193
3.33855
3.34766
3.35709
3.37758
3.33972
3.32527
3.28644
3.28571
3.33999
3.35661
3.32004
3.32804
3.29539
3.3129
3.38112
3.31641
3.31895
3.32015
3.30752
3.32747
3.33286
3.36514
3.34378
3.3729
3.32289
3.28272
3.42672
3.35434
3.32527
3.34573
3.35866
3.32569
3.31308
3.36055
3.26778
3.39315
3.32207
3.37188
3.32684
3.35332
3.33666
3.38793
3.30793
3.30961
3.34451
3.33237
3.34163
3.3255
3.32827
3.36575
3.29207
3.4306
3.32182
3.32198
3.37104
3.31417
3.34118
3.3183
3.30627
3.3735
3.37341
3.35303
3.30627
3.36694
3.3305
3.37036
3.33922
3.35395
3.36216
3.31785
3.32728
3.32919
3.30915
3.28895
3.37291
3.33812
3.26564
3.28247
3.40798
3.33308
3.35988
3.3889
3.36071
3.34811
3.33985
3.35019
3.31855
3.38228
3.36326
3.29682
3.3009
3.29134
3.34595
3.32328
3.31794
3.33336
3.31646
3.32996
3.3411
3.2972
3.28718
3.29426
3.30825
3.3732
3.32048
3.34886
3.34709
3.3515
3.36165
3.39903
3.36519
3.28929
3.32751
3.3398
3.32489
3.34877
3.29794
3.31778
3.30707
3.40918
3.32189
3.30113
3.34935
3.33571
3.35015
3.335
3.33548
3.29488
3.35466
3.32742
3.31816
3.3099
3.26518
3.33005
3.34251
3.32304
3.31756
3.33024
3.32526
3.36752
3.32287
3.36126
3.33651
3.35406
3.2875
3.32243
3.35098
3.31734
3.31258
3.2802
3.3382
3.37161
3.33739
3.32251
3.34896
3.33481
3.3256
3.33197
3.3656
3.32127
3.33277
3.31561
3.35209
3.34574
3.35722
3.29545
3.31223
3.27408
3.32413
3.36283
3.41163
3.36366
3.33977
3.35191
3.36039
3.33061
3.32409
3.38344
3.30532
3.27516
3.33372
3.34774
3.31367
3.33227
3.28166
3.31237
3.3526
3.33751
3.33387
3.35622
3.32894
3.34671
3.3172
3.26935
3.34698
3.31467
3.33335
3.2937
3.27109
3.36304
3.36556
3.31912
3.3025
3.35368
3.37438
3.37304
3.38179
3.3302
3.33948
3.36396
3.34315
3.35578
3.36089
3.34328
3.33466
3.33724
3.29855
3.33067
3.33352
3.33501
3.32427
3.35885
3.34753
3.35562
3.3254
3.35353
3.32033
3.32819
3.34852
3.31783
3.41137
3.35584
3.31971
3.32984
3.3936
3.33078
3.36163
3.33526
3.38116
3.34122
3.37669
3.35817
3.33403
3.31631
3.34486
3.30938
3.32104
3.31803
3.32618
3.35726
3.33352
3.3037
3.32796
3.34462
3.35867
3.28946
3.37092
3.26837
3.3649
3.29873
3.30205
3.29872
3.3553
3.33064
3.33706
3.41681
3.36236
3.36983
3.3288
3.34831
3.37472
3.29948
3.34545
3.37503
3.30144
3.40936
3.34507
3.33246
3.30919
3.32658
3.35447
3.32843
3.37271
3.34064
3.36323
3.35232
3.3774
3.30008
3.37559
3.34637
3.32157
3.34172
3.34529
3.33913
3.33134
3.30968
3.32372
3.33981
3.33938
3.33539
3.33882
3.33151
3.32839
3.28859
3.34119
3.33654
3.27602
3.32133
3.35097
3.35956
3.35884
3.32971
3.42159
3.38299
3.38295
3.31089
3.4257
3.31542
3.33475
3.36851
3.36776
3.32164
3.33686
3.33065
3.30026
3.34487
3.34441
3.37983
3.30133
3.36936
3.30729
3.4105
3.37814
3.38649
3.37157
3.36253
3.31603
3.36189
3.35376
3.3143
3.3583
3.28902
3.31143
3.29687
3.2661
3.41463
3.37072
3.32838
3.42252
3.30644
3.39001
3.34049
3.34397
3.3588
3.33372
3.34137
3.33652
3.36162
3.42589
3.34415
3.37741
3.30909
3.35928
3.32674
3.35
3.35256
3.33007
3.31702
3.34523
3.33991
3.32957
3.35714
3.32343
3.35953
3.30284
3.32619
3.32412
3.3382
3.32389
3.3121
3.33379
3.39317
3.31254
3.31617
3.35228
3.39884
3.31781
3.33382
3.38839
3.32114
3.3625
3.34065
3.3536
3.34041
3.30959
3.34604
3.36298
3.33755
3.3491
3.29847
3.3198
3.31257
3.34749
3.32453
3.40984
3.31002
3.31266
3.38325
3.43021
3.3796
3.35609
3.3362
3.3498
3.29991
3.35557
3.34428
3.31234
3.39332
3.32563
3.36295
3.32687
3.36506
3.32626
3.35089
3.32992
3.34837
3.31722
3.3194
3.29112
3.35023
3.31719
3.30653
3.31518
3.33414
3.34022
3.28726
3.36826
3.37351
3.34882
3.35198
3.3816
3.33242
3.34278
3.39202
3.34452
3.34821
3.28686
3.37204
3.34231
3.36274
3.32448
3.30763
3.34159
3.33612
3.41291
3.34453
3.34777
3.33852
3.32789
3.33037
3.31744
3.28807
3.32426
3.35632
3.32713
3.3648
3.35045
3.37439
3.3047
3.42694
3.33153
3.34706
3.35239
3.40286
3.32744
3.44237
3.3698
3.38904
3.41987
3.38168
3.33886
3.34055
3.3506
3.38526
3.38142
3.35059
3.32843
3.3623
3.34989
3.31188
3.32295
3.34172
3.32518
3.41732
3.29296
3.33278
3.34633
3.34745
3.43998
3.35551
3.36299
3.30326
3.31217
3.36748
3.34116
3.34687
3.34102
3.3265
3.38905
3.30261
3.33292
3.38726
3.34068
3.40737
3.33678
3.37178
3.31489
3.33836
3.37676
3.34712
3.40599
3.33573
3.38482
3.38542
3.37118
3.32036
3.39379
3.35564
3.36618
3.31989
3.3567
3.30684
3.38466
3.32213
3.34506
3.30699
3.32722
3.35521
3.35139
3.32743
3.35254
3.36618
3.34371
3.33911
3.28157
3.34658
3.33364
3.31648
3.3785
3.3281
3.28348
3.36285
3.33859
3.33782
3.36321
3.35752
3.3339
3.35176
3.37438
3.36491
3.41009
3.27213
3.35139
3.35585
3.31677
3.35413
3.38267
3.29452
3.33302
3.34204
3.30432
3.33296
3.32444
3.30715
3.40474
3.36825
3.31676
3.3463
3.3537
3.45209
3.36086
3.31613
3.39309
3.3657
3.38964
3.37396
3.36055
3.31321
3.34123
3.34858
3.34527
3.3503
3.31123
3.28875
3.30781
3.35002
3.33876
3.40414
3.36269
3.3319
3.34897
3.32309
3.39692
3.33188
3.39465
3.3507
3.36582
3.35216
3.35742
3.36613
3.36932
3.36745
3.40892
3.36533
3.381
3.38495
3.39187
3.36538
3.33751
3.36936
3.3934
3.3711
3.32857
3.34886
3.36666
3.38746
3.29298
3.32329
3.31972
3.39009
3.37284
3.37562
3.35283
3.312
3.34708
3.37415
3.35905
3.31451
3.34016
3.36892
3.36398
3.36975
3.28688
3.31247
3.34819
3.30965
3.38078
3.35075
3.3326
3.30708
3.36411
3.38891
3.37356
3.33525
3.31333
3.37068
3.3451
3.34985
3.30824
3.27439
3.31091
3.33419
3.3688
3.34886
3.37148
3.35819
3.30791
3.33641
3.29738
3.36538
3.40996
3.34388
3.41194
3.36303
3.34584
3.35712
3.26061
3.29013
3.36093
3.34008
3.29027
3.36306
3.39259
3.40781
3.30358
3.32372
3.37755
3.27469
3.35857
3.36803
3.34318
3.29406
3.32041
3.36167
3.2965
3.26388
3.33204
3.33174
3.35008
3.37681
3.37519
3.36057
3.34094
3.37919
3.36477
3.33945
3.33911
3.30885
3.34958
3.28611
3.29667
3.36792
3.31764
3.31046
3.34849
3.33904
3.36511
3.31429
3.33667
3.26614
3.4276
3.33977
3.31747
3.31236
3.26563
3.28804
3.40146
3.41081
3.33867
3.34129
3.32648
3.34701
3.35363
3.383
3.37475
3.28718
3.32401
3.3054
3.36071
3.32355
3.30806
3.29359
3.33244
3.32812
3.31499
3.36253
3.34318
3.35988
3.35226
3.34764
3.3284
3.37544
3.31334
3.31801
3.3044
3.34964
3.30157
3.35627
3.3003
3.3177
3.3714
3.30515
3.34237
3.3586
3.33414
3.32788
3.35298
3.31593
3.33463
3.35948
3.29864
3.34607
3.36658
3.32618
3.30881
3.33358
3.36813
3.33373
3.33979
3.32145
3.34768
3.27523
3.35336
3.33944
3.36088
3.31496
3.34707
3.36865
3.36906
3.30441
3.32899
3.299
3.34017
3.34125
3.30829
3.35075
3.31581
3.3137
3.35313
3.33674
3.27409
3.36852
3.37296
3.34903
3.32623
3.3619
3.32915
3.31015
3.39132
3.29196
3.26843
3.36905
3.30244
3.33559
3.3106
3.30664
3.3319
3.32022
3.33109
3.30992
3.27572
3.3395
3.29935
3.3228
3.35509
3.29217
3.38047
3.32881
3.32343
3.31282
3.31755
3.28351
3.31802
3.30969
3.33948
3.29124
3.32637
3.31668
3.31111
3.34909
3.31549
3.32397
3.34531
3.29453
3.34096
3.33507
3.33459
3.32916
3.32476
3.30478
3.32904
3.35097
3.31562
3.33531
3.37255
3.31161
3.34833
3.33447
3.35946
3.28793
3.30897
3.31003
3.30563
3.33976
3.32285
3.30891
3.3857
3.33722
3.33755
3.31675
3.34493
3.32914
3.27039
3.29156
3.29348
3.31943
3.31523
3.31609
3.32695
3.34341
3.33853
3.32842
3.34065
3.3356
3.29649
3.3572
3.34651
3.29701
3.32136
3.35002
3.35177
3.28957
3.37239
3.31188
3.35157
3.30444
3.33091
3.33148
3.3213
3.30713
3.35075
3.31747
3.3533
3.32635
3.2953
3.30779
3.29836
3.28522
3.30263
3.33231
3.3314
3.31872
3.31842
0
SCALARS cell_layer float
LOOKUP_TABLE default
1
4
4
1
1
5
10
6
4
4
4
9
11
7
3
1
1
6
7
9
10
4
2
1
5
7
7
10
4
2
1
3
3
1
6
4
3
0
0
0
0
0
0
0
0
0
0
0
0
0
0
0
0
0
0
0
0
0
0
0
0
0
12
1
0
5
5
4
3
3
9
2
10
0
0
6
11
3
0
5
1
5
0
1
3
1
0
6
6
2
4
6
7
0
1
7
1
0
5
2
6
4
3
0
10
7
0
0
3
5
4
0
9
3
0
4
6
0
0
4
4
4
0
9
1
8
0
11
3
7
1
6
5
0
0
2
7
7
1
3
9
6
1
3
4
3
0
10
7
6
3
8
6
2
6
0
8
6
11
6
3
0
1
2
6
0
5
4
5
0
0
2
5
12
1
0
0
2
3
1
2
5
3
0
5
7
0
1
1
2
2
6
1
9
10
5
1
1
1
1
5
1
2
0
2
7
8
8
5
3
2
3
4
2
4
7
5
11
4
11
8
5
2
1
4
10
2
1
3
5
2
3
5
6
0
0
0
10
7
1
10
2
7
0
6
0
8
3
6
3
5
0
12
1
9
5
4
1
0
2
3
10
5
5
4
6
1
1
2
4
3
5
0
6
7
4
11
3
5
0
1
1
0
5
0
5
3
0
8
1
3
8
3
0
2
2
0
4
1
9
1
1
7
8
0
5
4
4
1
5
6
4
5
6
2
5
3
2
9
3
8
5
2
2
5
11
2
5
1
1
1
0
0
0
5
3
1
3
0
7
0
2
3
11
9
4
9
0
7
1
5
9
8
2
2
0
6
4
7
1
9
3
7
10
9
2
9
8
3
6
6
1
5
4
1
0
2
7
3
10
1
2
0
5
0
2
1
1
7
4
1
3
0
11
9
6
9
12
1
0
5
6
4
0
2
5
3
6
9
1
3
11
5
1
5
3
4
3
5
12
6
0
1
4
3
9
0
5
3
4
0
3
5
0
3
3
8
3
6
7
4
6
3
1
6
2
4
1
2
1
3
4
0
2
8
2
7
9
6
2
5
1
4
5
1
0
0
2
4
11
4
11
1
5
4
7
5
7
3
5
3
4
0
8
2
1
4
1
1
6
3
7
2
11
4
4
8
0
1
3
11
1
6
1
1
5
0
4
3
3
8
6
2
1
2
4
4
8
2
6
9
3
3
2
8
5
3
8
3
0
9
5
7
0
5
0
1
2
3
5
1
8
3
5
1
1
0
4
2
4
2
8
1
9
4
6
0
6
6
1
10
2
2
8
6
6
5
8
3
4
2
12
5
1
4
3
3
0
3
1
2
2
4
4
3
1
4
0
7
7
1
3
7
4
6
1
0
5
9
8
0
3
2
8
3
3
8
3
3
2
3
5
4
6
4
5
4
0
11
4
2
7
10
8
5
5
2
7
1
1
3
9
4
0
2
0
0
6
2
6
2
1
9
5
4
2
1
7
2
3
0
2
3
0
11
0
7
2
0
0
5
9
0
8
3
5
6
6
4
11
7
5
6
6
8
10
2
4
2
3
8
6
10
3
6
7
7
2
7
5
12
3
7
3
10
10
1
2
5
0
0
3
8
2
1
10
0
1
2
11
4
12
1
1
9
5
1
6
5
0
3
2
5
8
6
4
4
5
2
6
6
2
3
2
6
9
4
2
8
1
2
8
5
2
4
3
0
9
8
7
3
2
6
7
10
1
8
6
4
7
2
4
10
1
5
6
1
11
8
4
5
6
2
1
2
4
3
4
9
2
7
7
4
4
1
5
2
4
3
5
10
4
7
4
2
3
4
5
5
2
10
5
7
4
4
4
7
1
0
10
2
1
2
4
6
2
3
6
0
6
1
6
0
2
6
1
1
2
0
2
1
11
1
5
3
1
8
4
1
0
3
9
2
2
5
4
2
5
2
10
9
4
9
7
0
10
4
6
6
6
2
2
4
3
7
2
4
8
10
4
6
2
4
4
5
1
0
2
11
10
5
1
3
1
2
5
3
3
5
5
4
9
6
1
0
1
2
6
10
2
11
3
7
2
7
1
3
0
1
2
9
1
0
9
3
7
3
0
0
4
1
5
2
5
3
0
6
5
3
2
8
2
0
0
4
4
7
7
8
8
10
12
4
2
4
3
6
2
2
4
8
8
7
2
8
5
11
1
4
6
1
2
0
6
7
3
2
4
8
2
7
9
3
2
0
3
2
6
7
3
5
2
5
6
2
1
0
2
1
1
4
7
3
3
6
3
7
7
1
-1
SCALARS cell_perimeter float
LOOKUP_TABLE default
6.87003
6.99961
6.93986
6.9114
6.93533
7.08518
6.89002
6.88411
6.96
6.88114
7.11016
6.76118
7.27255
7.1515
6.98961
6.80698
6.83553
6.83778
7.58654
7.00475
7.02408
7.03973
7.08839
6.83619